<?xml version="1.0"?>
<VTKFile type="UnstructuredGrid"  version="0.1"  >
<UnstructuredGrid>
<Piece  NumberOfPoints="12250" NumberOfCells="23858">
<Points>
<DataArray  type="Float64"  NumberOfComponents="3"  format="ascii">0 1 0  0 0 0  0.25 0 0  0.25 1 0  0.25 0.5 0  0 0.5 0  0.25 0.25 0  0 0.25 0  0 0.75 0  0.25 0.75 0  0.25 0.125 0  0 0.125 0  0.125 0 0  0.25 0.625 0  0 0.625 0  0.25 0.875 0  0.125 1 0  0 0.875 0  0 0.375 0  0.25 0.375 0  0.125 0.3125 0  0.125 0.5625 0  0.125 0.8125 0  0.125 0.125 0  0.109375 0.4375 0  0.109375 0.6875 0  0.09375 0.21875 0  0.15625 0.90625 0  0.25 0.0625 0  0.1875 0 0  0.0625 0 0  0 0.0625 0  0.0703125 0.9296875 0  0.25 0.1875 0  0.175 0.21875 0  0.1686580882352941 0.6314338235294118 0  0.25 0.5625 0  0.1686580882352941 0.3814338235294118 0  0.25 0.3125 0  0.1846093920839711 0.457675742811065 0  0.1846093920839711 0.7076757428110649 0  0.06963315217391304 0.8580163043478261 0  0.07291666666666667 0.07291666666666667 0  0.15625 0.0625 0  0.1875 0.84375 0  0.0625 0.28125 0  0.1875 0.53125 0  0.07552083333333334 0.7552083333333334 0  0.07552083333333334 0.5052083333333334 0  0 0.5625 0  0.07552083333333333 0.3697916666666667 0  0.07552083333333333 0.6197916666666666 0  0.1824174313243159 0.7757901373513681 0  0.0625 0.15625 0  0.25 0.9375 0  0.1875 1 0  0 0.8125 0  0 0.4375 0  0 0.6875 0  0 0.3125 0  0.25 0.6875 0  0.1875 0.285625 0  0.1875 0.151875 0  0 0.9375 0  0.0625 1 0  0.25 0.4375 0  0.25 0.8125 0  0 0.1875 0  0.1349233842818192 0.4925919004742429 0  0.1335152562773358 0.7418878364720013 0  0.0594917385057471 0.5625 0  0.203125 0.09375 0  0.0546875 0.4225260416666667 0  0.0546875 0.6725260416666666 0  0.2019136658660413 0.338216765427811 0  0.1995020000924898 0.5853709998150204 0  0.134375 0.2572916666666667 0  0.134375 0.1802083333333333 0  0.0542280474742976 0.8055614981858166 0  0.1221934647393398 0.8655188450868867 0  0.04166666666666666 0.21875 0  0.15625 0.9583333333333334 0  0.203125 0.890625 0  0.206713569888 0.4132614932290299 0  0.2115463505317381 0.65625 0  0.2012310606060606 0.9393939393939394 0  0.201171875 0.0458984375 0  0.03999561774661511 0.7201937510074146 0  0.0399956177466151 0.4701937510074146 0  0.035784841954023 0.34375 0  0.120327818627451 0.6397058823529411 0  0.120327818627451 0.3897058823529412 0  0.109375 0.9557291666666666 0  0.04564950980392158 0.1118259803921569 0  0.1118259803921569 0.04564950980392157 0  0.08025380291005291 0.3238673941798942 0  0.1112651209677419 0.9105762768817204 0  0.03211805555555555 0.90625 0  0.03828125 0.96171875 0  0.04036458333333334 0.04036458333333334 0  0.03620912949997044 0.5250978305837619 0  0 0.59375 0  0.162109375 0.1044921875 0  0.03118139907916267 0.8408194304321051 0  0.1571963533457454 0.590400949253577 0  0.1587578894014007 0.3394119764183286 0  0.1506969975490196 0.4218175551470588 0  0.1506969975490195 0.6718175551470588 0  0.2070906355574324 0.2473574746621622 0  0.2070906355574324 0.1901425253378378 0  0.08465650753054846 0.1224380150610969 0  0.1114330859658678 0.08648358070079884 0  0.04054746717714226 0.5986883868529541 0  0.25 0.15625 0  0.25 0.28125 0  0.25 0.71875 0  0.2084391486333693 0.742535064766066 0  0.2077428895139916 0.4936107790279832 0  0.25 0.96875 0  0.03666712336686759 0.7684569195137533 0  0.1109703176434807 0.3503952932678546 0  0.1109703176434807 0.6003952932678546 0  0.1323450854700855 0.21875 0  0.25 0.78125 0  0.2086853046321041 0.8079956092642081 0  0.08000310162272527 0.465131759144696 0  0.08000310162272528 0.715131759144696 0  0.1018832642575987 0.1578918738938707 0  0.09479166666666666 0.2583333333333333 0  0.03867928291393143 0.3857193939186725 0  0.09132584216562684 0.7915703900993829 0  0.09224586925287355 0.5407758212513062 0  0.2116835102241899 0.3752677467682454 0  0.0414061843625662 0.6367966883181331 0  0.25 0.21875 0  0.08681832107843138 0.4047372855392157 0  0.08681832107843135 0.6547372855392156 0  0.1712610500122523 0.4982534075100398 0  0.1479279021104813 0.5302308042209626 0  0.1402758174771396 0.4566398871709348 0  0.1401770623234474 0.7063796751786664 0  0.2135607759365587 0.6194448537498545 0  0.07848715477520853 0.8937711976365836 0  0.09934508737030834 0.8377256696305275 0  0.07675624887614536 0.0340696230396066 0  0.03406962303960659 0.07675624887614535 0  0.1440082713785475 0.7789727266050902 0  0.1660139782670602 0.8111869039237365 0  0.07431640624999999 0.96572265625 0  0.25 0.46875 0  0.1698567708333333 0.03024088541666667 0  0.171875 0.875 0  0.03645833333333333 0.2552083333333333 0  0.08098262222381999 0.18607118888809 0  0.02997236128493951 0.143180277430121 0  0.25 0.84375 0  0.2154679739181572 0.5534390521636856 0  0.03645833333333334 0.1822916666666667 0  0.03632264025522072 0.3070202805104414 0  0.21875 1 0  0.1513741686550626 0.8442167313996213 0  0.2168133977813582 0.4459955487717956 0  0.2190131322531496 0.703125 0  0.1727093113888277 0.7413852578608228 0  0.1701041666666667 0.2542708333333333 0  0.1517708333333333 0.1488541666666667 0  0.2142163753799392 0.1278941869300912 0  0.1587267574490621 0.3048224010443303 0  0.2156942356037362 0.3061689288285205 0  0.1725364379972955 0.1836837968219244 0  0 0.28125 0  0.25 0.59375 0  0.09623775023237939 0.2930336745498909 0  0.21875 0 0  0.25 0.03125 0  0.1670095396165001 0.5580904353245775 0  0.21875 0.859375 0  0.25 0.90625 0  0.06770833333333333 0.2392406798245614 0  0.1360540015737478 0.9322916666666666 0  0 0.65625 0  0.2159715577099652 0.7752374751740043 0  0.03967280310556515 0.8734198626945593 0  0.1077910012998816 0.762797795345007 0  0 0.40625 0  0.1171150579179289 0.5198108382041321 0  0.09070664895503529 0.5740093301963526 0  0.25 0.53125 0  0.1411005024478043 0.365749143953847 0  0.203125 0.9716815370501894 0  0.1837945203686314 0.6744812093095998 0  0.2183170921236503 0.1602468982335675 0  0 0.15625 0  0 0.09375 0  0.09375 0 0  0 0.53125 0  0.03125 0 0  0 0.03125 0  0 0.96875 0  0.03125 1 0  0 0.84375 0  0 0.90625 0  0 0.34375 0  0 0.46875 0  0 0.71875 0  0.25 0.65625 0  0.25 0.40625 0  0.15625 1 0  0 0.21875 0  0.25 0.34375 0  0.25 0.09375 0  0 0.78125 0  0.09375 1 0  0.15625 0 0  0.1382501640128451 0.6146706181423367 0  0.1029032040920708 0.4879819075298724 0  0.1112825458828796 0.718954367531518 0  0.2169638964623854 0.5228330254530568 0  0.1405591976966633 0.03688248058223706 0  0.02974586925287355 0.5550688899717633 0  0.2160338230385579 0.2760842074590348 0  0.02581632758445363 0.7963003271249862 0  0.224971958664313 0.921875 0  0.06400137079623429 0.5337450614030229 0  0.2037965081545127 0.21875 0  0.1853048017546082 0.1225569867710261 0  0.02797756823289423 0.4122583915708087 0  0.03201311651072376 0.4416354471567994 0  0.02802337245342894 0.662104489389812 0  0.03186754112015969 0.6915905787012612 0  0.2261855508973228 0.953125 0  0.08036684492372444 0.6860917176336441 0  0.08036684492372444 0.4360917176336441 0  0.1802741037799466 0.4278105955407592 0  0.1778428819444444 0.08089192708333333 0  0.2205285078642384 0.06907401179635761 0  0.1088722606056869 0.1940083737915799 0  0.1367254622493273 0.2860909589983134 0  0.06842073158759261 0.5920268866576984 0  0.184988977893691 0.9143419336810731 0  0.0418402777777778 0.9332465277777777 0  0.1871006213226104 0.6104250062100378 0  0.07985644640444792 0.8173374306235633 0  0.04732923247576441 0.4982821258888622 0  0.06611853992436414 0.780911006716439 0  0.2273935668277038 0.828125 0  0.1858696187385389 0.3143428712429033 0  0.1140892094017094 0.2390357905982906 0  0.1877922691669536 0.3617539661943096 0  0.05758674846768909 0.8333647569007363 0  0.1352608290824233 0.09973815947057559 0  0.1517706243282904 0.2004488161476693 0  0.1449695316901515 0.8810785158450758 0  0.09462378205504757 0.8708015690781575 0  0.227445339911385 0.578125 0  0.05745737992792876 0.4499181399758709 0  0.05780649493506441 0.7003314350163611 0  0.1187818739346447 0.7868226346316679 0  0.1745466635354981 0.9389032027907473 0  0.1256305258840564 0.838799819642297 0  0.06770833333333333 0.2124471236358035 0  0.02083333333333334 0.203125 0  0.140625 0.9791666666666667 0  0.1766821659552516 0.975561292200228 0  0.1620783318872163 0.4727483267075381 0  0.1536725427350427 0.2339082512469609 0  0.1617771474337578 0.278952823831228 0  0.02741604996872549 0.281090803289549 0  0.06183906994143391 0.3975310989925237 0  0.2268982540772563 0.2305832481508689 0  0.2294261974844445 0.203125 0  0.02083333333333332 0.234375 0  0.2223182091346154 0.02768179086538462 0  0.09616947414406221 0.7398115542262675 0  0.1053409896466572 0.4626386355124552 0  0.08648552069711524 0.09585218346816277 0  0.2272083926866681 0.3301067571674309 0  0.1294244353979274 0.06623776300617727 0  0.1263039818717184 0.1504857241294106 0  0.1149927180695202 0.2733691199751007 0  0.06199131875595188 0.7334062158692485 0  0.02625450755792898 0.7434924481572176 0  0.01945983991027112 0.484375 0  0.2275111354177403 0.3554598004473978 0  0.1921314999800934 0.3920320902063825 0  0.2289470153175877 0.4243266814421967 0  0.1870247299647788 0.6491605463078544 0  0.230773175265869 0.640625 0  0.2257840012722039 0.6780142623324342 0  0.2307273932539546 0.109375 0  0.2269693349086677 0.8972169952739968 0  0.1953125 0.8671875 0  0.162762385654881 0.6943720653954724 0  0.161588388430844 0.4440475151025772 0  0.2309500035219089 0.390625 0  0.2299311249500424 0.7955318348720017 0  0.02413306936009103 0.09948394181876646 0  0.09948394181876646 0.02413306936009104 0  0.1330536118107118 0.3370263238470877 0  0.1248085171568627 0.6658847783905228 0  0.1248085171568627 0.4158847783905228 0  0.1449811166772675 0.6384219919056187 0  0.1453180229233392 0.3903903978433153 0  0.09683485463150776 0.3822000850447938 0  0.09683485463150776 0.6322000850447937 0  0.223427517855915 0.4719270744719414 0  0.06546557658678889 0.6423413858921275 0  0.02224001017440792 0.5800747442977685 0  0.05437297849869319 0.3256533714011888 0  0.06877150140910145 0.3458900515631618 0  0.05106406938652892 0.3637940165204562 0  0.191795031
[...]
<PointData  Scalars="f_24"> 
<DataArray  type="Float64"  Name="f_24"  format="ascii">9.2612024021664686e-06  4.6259219926168672e-06  2.3159001992465096e-06  8.4197473144758033e-06  6.1650341427285235e-06  7.8691377757736275e-06  2.0623917443255343e-06  3.9471827578069361e-07  2.7599294411584557e-06  1.5821508810309998e-06  2.4480306238987061e-06  5.2244080412746159e-06  7.9701198824115688e-05  1.1868345844810377e-06  5.4795088769100999e-06  8.3955927566080630e-06  8.1264116305474366e-05  1.2339429347873147e-05  1.2070426488928225e-05  1.1943471945409453e-05  6.3400366775052722e-05  6.0929640756652251e-05  5.1149482708682299e-05  3.7437365777507696e-05  6.6295458620335002e-05  4.6698634049862248e-05  1.9685765322148590e-05  2.7502031225469786e-05  9.1338145487608833e-06  3.3617997176846020e-05  5.9243681053612210e-05  3.9864169327917993e-06  4.3241144777384147e-05  8.2723446226003539e-06  2.3935200763429072e-05  4.4485101532768445e-05  9.1050568161842037e-06  2.5971872791499276e-05  6.9903562461017743e-06  3.2801768158133212e-05  3.5935431351950416e-05  3.6356254657341271e-05  2.5196639859859803e-05  6.3480815630702296e-05  6.4608129726837889e-05  3.4630225371761542e-05  1.6157836110088501e-05  2.8880028546596064e-05  6.8805021064477300e-05  1.1854368765447574e-05  2.6365005162197973e-05  2.6269669276036259e-05  2.9212258004109580e-05  2.5578773782847575e-05  5.3693851344344333e-06  7.3687398643240340e-05  6.9174590535516072e-06  4.1414752457165458e-06  6.1669623275054904e-06  8.7804862390602365e-06  2.3086193775516823e-07  4.9255889933325432e-05  4.4326812843360832e-05  1.1136215584896539e-05  3.5681679526095562e-05  6.4278440239616295e-06  6.9244091938759480e-06  5.3789190697053776e-06  3.6847429970015180e-05  6.4936048061828961e-05  4.8182787246593517e-05  2.8692689254465866e-05  4.5581038543788959e-05  1.5242581004385193e-05  4.0944813111665387e-05  4.5197932058108301e-05  6.1140922994640733e-05  3.0636102476523587e-05  1.7883403638472118e-05  4.2120046021793652e-05  6.1853073952307213e-06  4.3343908153063894e-05  1.5514492997180410e-05  1.2478515125359694e-05  2.4741162338645523e-05  2.0643296842680768e-05  2.6636562929736852e-05  1.2004506126104561e-05  1.9978336140220385e-05  2.5758271471266293e-05  5.3237093746479430e-05  5.4181893518474360e-05  4.7309812464276788e-05  3.1902229874224481e-05  6.0641952073357073e-05  5.5555359501026651e-05  5.7323183474183105e-05  1.9099713077354760e-05  1.9690006047996884e-05  4.9031610001884452e-05  2.4472562099003294e-05  1.0091043409854247e-05  5.5089917411571116e-05  2.6810928554767543e-05  6.8314405164829079e-05  6.0554084566035411e-05  4.4486909911880022e-05  7.4363601090713139e-05  4.4873982042284984e-05  1.4675696932357752e-05  4.8442534709314554e-05  5.4964417792400533e-05  1.6689376188417845e-05  4.6048685895763568e-06  5.3797489402925504e-06  1.0044467568738483e-05  3.6996627378686392e-05  3.9581774407820130e-05  4.8468057519200168e-06  5.3437446481737477e-05  5.4628453707126522e-05  4.1434898255227480e-05  5.7357766113285692e-05  1.1153646677272657e-05  1.4538672419022964e-05  5.1561719135750470e-05  2.5250585925903828e-05  2.0875648276411613e-05  3.2045194891203465e-05  1.4797654022979431e-05  4.9951633692751474e-05  7.0914103354704466e-05  3.3467993354119755e-05  1.7511133460433462e-05  2.8596652431727639e-06  3.1052066342816068e-05  2.8672691360331515e-05  4.1206954174543032e-05  2.5444039225580302e-05  7.0346394927631634e-05  6.8738166791848269e-05  1.6436856311828245e-05  4.9084783427052343e-05  6.7255744310834069e-05  3.4291357697730730e-05  1.3950747715306637e-05  6.3748783568043282e-05  2.9569536877769575e-05  2.5638710507968850e-05  7.4311627164489876e-06  4.9215228600528802e-05  3.0953907767645585e-05  2.4822064387379194e-05  1.5170294584141781e-05  4.0619257402588751e-05  9.2419379494974945e-06  3.2977797876708855e-05  4.4722239246427624e-05  3.3812330199412437e-05  3.9075615037997698e-05  5.9977070892054459e-05  1.7260128547763418e-05  2.7772789698896483e-05  6.1525099204211568e-05  3.0868602856200314e-05  3.2059260286792173e-05  1.7582781212422421e-05  5.6656598987273512e-05  1.8151022284332690e-05  4.7123258808047655e-05  6.7914446215063697e-06  2.9999450856187201e-06  3.9220318872105838e-05  4.7211878936277193e-05  1.0354620277049849e-05  3.2493474494138136e-05  2.7030898199120241e-05  1.1336600949030623e-05  1.1870026437946392e-05  6.9040329377666285e-05  1.1140280634158934e-05  2.4615861629011413e-05  4.1164017526030236e-05  4.7137151451679146e-05  1.2271414945539124e-05  3.6404104801553780e-05  4.7211828307004975e-05  1.2304139904702160e-05  5.2143654424387902e-05  3.9649170837580335e-05  3.6232694889133690e-05  2.2926070540648494e-05  7.8707338658768479e-06  8.0474818838492582e-06  6.2304859396564524e-05  7.3736240594752246e-06  2.9190765310060428e-05  5.5052758484733052e-06  5.4791472520154377e-06  8.9838579154335288e-06  7.6955936679655664e-06  8.4827524261319723e-06  2.0296673006817564e-07  7.1785951605144399e-06  1.0842501756213744e-05  1.2364994799637742e-05  8.8981128866789375e-06  7.4416485462099367e-05  1.5596903719004824e-06  1.1776640545644985e-05  6.8463227802780513e-06  6.4035690404320769e-06  6.0419256452671367e-05  6.6838552522232000e-05  6.3160142298128791e-05  4.6093367890420026e-05  4.1179702336972488e-05  1.0303279681660306e-05  7.7221116634141132e-05  4.0912534677318598e-05  3.6720830664453259e-05  1.3599019846469801e-05  1.5598758563913956e-05  5.1113836492895394e-05  1.7961425764075617e-05  4.1994932892782682e-05  4.5145671703228008e-05  3.6143233190095491e-05  1.0746402777517961e-05  7.8866654498344305e-06  2.6308204211276371e-05  2.8612795967591676e-05  4.4610267161823041e-05  3.2326252960355511e-05  5.7425019632903721e-05  3.0311915583433697e-05  3.4461912416765508e-05  4.6254953404224385e-05  3.1532371505022704e-05  1.9475684478856799e-05  3.4192625067654666e-05  2.8359176163216875e-05  3.5626546884779515e-05  3.0193061980568075e-05  5.5410722999091836e-05  3.2210204748205855e-05  4.2504510128821860e-05  3.7272338578654457e-05  3.8199059929036016e-05  2.2458960859305604e-05  4.3408926465380801e-05  4.7850873423394168e-05  2.9671450085008842e-05  6.6896755993883913e-05  2.5222008873652047e-05  3.5583322782251409e-05  1.7302616829140321e-05  5.3927270092950711e-05  3.1152089781112858e-05  6.5955789403139632e-05  1.0021993840272820e-05  1.6379866322479960e-05  5.9973185766745136e-05  4.8705597784033545e-05  4.9223224950193075e-05  5.1073039739670542e-05  3.8214728960103831e-05  2.2641895269055022e-05  1.9961524250525096e-05  2.6140622164404892e-05  1.3909475888118998e-05  3.0978197906931895e-06  1.6737877028119937e-05  3.2871955829917572e-05  6.3161912714084027e-05  5.5260614095075941e-05  3.2868309603251223e-05  5.6531044739324053e-05  2.8059771002653222e-05  5.8262398629767771e-05  1.9538406361672896e-05  3.3276698102601196e-05  9.5861956776351274e-06  2.0234538649350112e-05  1.7579685918620631e-05  1.7507770950501674e-05  3.4621074599910409e-05  1.4273678748629528e-05  1.6504128617383216e-05  1.1164713253373449e-05  9.1109471911195639e-06  3.8214148417414803e-05  4.8122199233412155e-05  5.8738757654214025e-05  5.5111064181650747e-06  8.7778736049390900e-06  9.5725664801882387e-06  4.3555478433725233e-05  8.4743962669829009e-05  4.7995146402297421e-05  5.7687268893845102e-05  7.6914813951626994e-05  3.7533136271454402e-05  3.2034281222516626e-05  5.4998738902729249e-05  1.4995971257657669e-05  2.0441549983372419e-05  2.4698607900942065e-05  5.5303922955514799e-05  3.7640538060068728e-05  2.3964558605902883e-05  3.2735079548324000e-05  1.3535307163257967e-05  6.1171424753635612e-05  6.0819231288333038e-05  3.2346878915834791e-05  4.8173496640284807e-05  3.0669418074989715e-05  2.3605976869599347e-05  2.4803666589361786e-05  3.7544538755976096e-05  5.0827628419991012e-05  1.8795142404026751e-05  1.3206880887675818e-05  1.0660282011604359e-05  1.9162624097038291e-05  5.0112782432824881e-05  5.6288599486454009e-05  4.8777100009003416e-05  6.0487714245637236e-05  5.3137761273532463e-05  4.4658753124492083e-05  3.9784088433589530e-05  1.9437027371994838e-05  6.7773444270034745e-05  5.6158541679541648e-05  4.9829238934340846e-05  1.8548916003428039e-05  3.5013789975716026e-05  2.6370578102475419e-05  2.3537683291193536e-05  2.2650561732947766e-05  3.5570194513212381e-05  6.1474998712628088e-05  2.3820851922630540e-05  1.5484150487466295e-05  2.2929814641003550e-05  3.0874320690990652e-05  4.6744429653419130e-05  5.2141257902443753e-05  6.9711979201446414e-06  1.1868727079919552e-05  2.7181867909546555e-05  3.6502231139028961e-05  1.8272874307740749e-05  1.3589146230602998e-05  1.1589089212195791e-05  1.0828514164141473e-05  5.0280633756484879e-05  5.1438245294246413e-05  9.0341234074031270e-06  2.9100925977451392e-05  4.6037249859630327e-05  1.4616514450369197e-05  4.2570278443484762e-05  1.5917452829594528e-05  6.1015336506147299e-05  3.0095470440358990e-05  9.8211520256374109e-06  5.3676130588601218e-05  3.3394470922491994e-05  6.7235864098396178e-05  3.0246535907048774e-05  5.3638838802371302e-05  3.9391577387956372e-05  5.7300650670060499e-05  6.0686888845788091e-05  2.5784580811876532e-05  1.9496349105548151e-05  2.0418518839317867e-05  2.6226885794310439e-05  3.2342134612603450e-05  3.9103680845087463e-05  3.4548275475782853e-05  2.1783255218451083e-05  6.1459560347998656e-05  5.2101100937561465e-05  3.3709890193955562e-05  1.6677628320860347e-05  1.5166573167930026e-05  4.9460152327783800e-05  5.6280115061271515e-05  4.1692519076692951e-05  4.8029354939922984e-05  1.2051328069954538e-05  4.2709090146612354e-06  2.1383107921602409e-05  1.7278358146357026e-05  3.8796037861635742e-05  4.7241930654620111e-05  3.2057808386978527e-05  3.0204362231328097e-05  5.1277274298965693e-05  3.6940301343345089e-05  1.7671339612719190e-06  1.8993662449094602e-05  7.1649139686807702e-06  3.6524883477268152e-06  2.5068766061394642e-05  1.8725716574160073e-05  2.4473487600846572e-05  2.2196441239997419e-05  4.7006691930839167e-05  3.1513289504137976e-05  6.6915826342876428e-05  2.5732105704091520e-05  1.8218704763344265e-06  2.7754671773349437e-05  1.1783102919964450e-05  3.9218481311398184e-05  2.3972789113966469e-05  6.8514406119774544e-05  3.3483502473467549e-05  8.5083157985384146e-05  1.3061251183768899e-05  5.6810707368596254e-05  2.9803194082028547e-05  1.8448927250050210e-05  4.8182235295272850e-05  4.8358139218076520e-05  4.4928509063935233e-05  5.3766071650199676e-05  5.6093302630102489e-05  3.7201149470468817e-05  4.0781483053538516e-05  4.3413680298815957e-06  4.9849775351152887e-05  6.7537050824377070e-05  5.6339539451827010e-05  3.3929114667574860e-05  2.5295630868938294e-05  6.9077468727927717e-05  2.9518151618077777e-05  2.9142077065647751e-05  4.3747499233210679e-05  5.9381506530738184e-05  3.7662693750093511e-05  3.4687416418951237e-05  2.7701365286003348e-05  2.9778811758608871e-05  3.5902143640615261e-05  4.8492026405636449e-05  4.3982520115626288e-05  2.1677734379138436e-05  2.4508547671416359e-05  3.6582749487293398e-05  7.5155095721762352e-05  2.2862365943522489e-05  3.5728231805498002e-05  6.0885905461987002e-05  6.0776974182830456e-05  5.0069938213111725e-05  8.6268348679856819e-05  3.8737763497393758e-05  2.5550126900686669e-05  4.4577172819752836e-05  3.4164867382345656e-05  3.1421055228754346e-05  2.3158732533795945e-05  1.7200772818265526e-05  1.1218446632458180e-05  5.6627538771940952e-05  4.1787646557581656e-05  3.1518420433073005e-05  4.5232441346470760e-05  4.8793123954846230e-05  1.8602313270238569e-05  4.3618911427937146e-05  1.1595002718637498e-05  1.4069840289470558e-05  1.9491894770593810e-05  9.9450858181738466e-06  5.1359734550266330e-05  7.7463640461995003e-06  3.8411534095603907e-05  1.4039266012470617e-05  1.0517492035423836e-05  6.0916336309431988e-06  8.0755011812829301e-05  3.7612369217185544e-05  2.6133703651083789e-05  1.5279128233151051e-05  2.0116296587782168e-05  1.7289348676222623e-05  3.0668828214161957e-05  4.4377496470700277e-05  4.0168945046133857e-05  4.4563161011730614e-05  6.5538865441833129e-05  4.5457039368280529e-05  7.0900923644992049e-05  5.5407745838083493e-05  3.8523540522027606e-05  7.2795864211724884e-05  2.6752754047694552e-05  2.0640764017959025e-05  1.0231387599855033e-05  2.0831167873640002e-05  5.6913229631814425e-06  4.1350218840780440e-05  2.0925192860830493e-05  4.4528637022400844e-05  2.4064496529108457e-05  2.0295674084962082e-05  2.9037873953564526e-05  2.7547086895024049e-05  1.8194071389521589e-05  6.8907897234291160e-05  7.5491960860202208e-05  5.0795515231187085e-05  5.2306263594433326e-05  5.9259762410970541e-05  1.1996406061273417e-05  5.8125430409388756e-05  1.8252721881356199e-05  2.9886733381329046e-05  4.6261840132168603e-05  2.7474730555153283e-05  1.9238390887132640e-05  6.7367908175520335e-05  1.1133373436265170e-05  4.2867364172926991e-05  1.7700615610923112e-05  3.0608226083634360e-05  4.6524688942085337e-05  1.8066200502265787e-05  2.4053701723096885e-06  5.3416175638744913e-05  1.9180916837461467e-05  2.3772032708143101e-05  1.7969942544294167e-05  7.4651148595257993e-05  3.0590961851804838e-05  6.3304841693033904e-05  6.1383297782714194e-06  1.3159117269474048e-05  3.8233663613004112e-06  6.3144492363791980e-05  4.7443733223626921e-05  3.9775060078231071e-05  4.2219812617007481e-05  5.2274776528024799e-05  2.4839461560003058e-05  2.2855259583607526e-05  3.5487313369180811e-05  1.5874766877987095e-05  4.3155126678549348e-06  1.3284186195513159e-05  3.2471424543407734e-05  4.2039743644614774e-05  2.5015031893207036e-05  2.4643045287967046e-05  3.4172113417196090e-05  1.2985064884146774e-05  3.6851811570640298e-05  2.5038359976624579e-05  3.1310579824174280e-05  2.4124837531605146e-05  6.1173245259678688e-05  2.9745804849412690e-05  5.5704590724222997e-05  1.9063460330929066e-05  4.3080896575266301e-05  5.3216862175306545e-05  5.7497921641611819e-05  5.5652446649629183e-05  3.3894006216067250e-05  2.1360808887008385e-05  3.2566036122271664e-05  2.4355309490164802e-05  2.8421785717808623e-05  1.3836350619532722e-05  6.4479079314541416e-05  8.4666779481892795e-06  4.8733839460131930e-05  9.8391880466556296e-06  2.4761821177699189e-05  5.7243342129516450e-05  1.3371138664254996e-05  3.2047651617779971e-05  3.9963753617681440e-06  5.2185432055971176e-05  4.5181453554410954e-05  7.3856319549299487e-06  5.0670735564387768e-05  2.2575120337627029e-05  9.9036974898493939e-06  3.5092987002461548e-05  3.6481199190921948e-05  4.2584912635811159e-05  1.6570033129120797e-05  4.7403221685293678e-05  7.0009095489727365e-06  3.8850210946996547e-05  1.8428115942899802e-05  3.8434523381794418e-05  1.7909339231867641e-05  3.9546306338265448e-05  2.8996262208053265e-05  3.0266970887347028e-05  3.0974915732833521e-05  5.4540929515417452e-05  4.0049826002542092e-06  1.3841100117767687e-05  7.9412082740376977e-06  1.1877064689632960e-05  3.4260898750979320e-05  3.2371177138259910e-05  7.5930850889907426e-06  4.2112719942352871e-05  3.2683564011584810e-05  4.7000603622152984e-05  1.2170897829895910e-05  4.6469066952068664e-05  2.9358343251730685e-05  1.7400855007399343e-05  6.3582924031559942e-05  4.6881353089035983e-05  1.0004962486214988e-05  2.7101621161896882e-05  1.1281408065347044e-05  2.7879728355131079e-05  1.1667609846783269e-05  3.9185152871897946e-05  1.0247950167266702e-05  5.2548269581128869e-05  5.5804382816929120e-05  1.4301193731284493e-05  3.8907776578337760e-05  2.8664011961354123e-05  3.3727150911343342e-05  5.5846669474772481e-05  1.3093092464093692e-05  4.2583722388812387e-06  3.4373069689210489e-05  5.5105278651596333e-06  3.2697032297331363e-05  1.0573507320243288e-05  2.7543697740100571e-05  1.1107262053244648e-05  5.4035059417924140e-06  3.2720536388633649e-05  6.7103576612426807e-06  3.5121348847629743e-05  3.2043407722680967e-05  4.4643909787644946e-05  7.1897159620599920e-05  3.8333794989885941e-05  5.9552656759008759e-06  5.8151142724447122e-05  3.4257225780251145e-05  6.2415507929152573e-05  2.1611490854729608e-05  3.0354547637718828e-05  3.5656465525587160e-05  6.9104850976701236e-05  2.1445969727075782e-05  2.5175451437785292e-05  3.2688823911849210e-05  3.9575832063800387e-05  2.8653149692879160e-05  3.9754571824939307e-05  5.2072323292579846e-05  6.3409303243998192e-05  3.7634050698123392e-05  6.5898243186185746e-05  3.0999645466411120e-05  1.8231650980269123e-05  4.3775226597114697e-06  7.5089392053735843e-05  3.1891028791099232e-07  4.6197733948720552e-06  3.3192128550567830e-06  1.1684116892050198e-05  1.1364016280056948e-05  1.1585205050369626e-05  1.2280023125174633e-05  1.2249481290150309e-05  1.0468988601452170e-05  7.8852180789129635e-06  1.1395815778115535e-06  2.7112690962696196e-07  6.7373626205693453e-05  7.8221730328766239e-06  1.3552910058433122e-06  7.1562541064243361e-06  2.7144452207078675e-06  1.1664313105510815e-05  8.7955326898485760e-07  8.9374783308161429e-06  3.0510899403445483e-06  1.1509342576478372e-05  9.7331153307078878e-06  1.1487477295716544e-05  3.2141572966688877e-06  4.2404128087225775e-06  4.7808927320678403e-06  8.0345293323152419e-06  8.4202356203952708e-06  8.1877344965515411e-05  1.0706756455759403e-05  2.0035492017337758e-07  1.2380765003529369e-05  6.4281173373240409e-07  4.9688606077194816e-06  6.1877033295793347e-06  1.1885850498883711e-05  8.2402939786947852e-06  4.1314167454497735e-05  5.9924166376430485e-06  2.6310625862791081e-06  3.2781009605999146e-05  7.9492307913045512e-06  8.1397877550766083e-06  4.5389658503970884e-05  2.5221846209382129e-06  1.0316165889741974e-05  2.4187053505103611e-05  5.3998117090424860e-05  1.1190429473637105e-05  1.5267959019128574e-05  2.7803249490674046e-05  3.7004587984544686e-05  5.0876712153690171e-05  5.7807353931069976e-05  4.3556752482137670e-05  2.3529238709572391e-05  3.0661917885327739e-05  2.7308672615447504e-05  4.0587567028984892e-05  6.1413772462375345e-05  5.1477967534403577e-05  6.7458181281264919e-05  3.3561542959091878e-05  1.9943927140419717e-05  6.6558314139007906e-05  3.6776375847982092e-05  1.1780570937403765e-05  7.0511522517969108e-05  1.2254006334917179e-05  1.6013380641864004e-05  3.0156676258877944e-05  3.5007206557070736e-05  5.8878212852388851e-06  2.7898127778477601e-05  5.5630033300014094e-05  1.6245315973619967e-05  1.5473766472915558e-05  2.7399305589567157e-05  4.1361556336310529e-05  2.9183392937472343e-05  3.0449391049704089e-05  6.8792405246969880e-05  2.5544281441416699e-05  4.5541311304506366e-05  2.8763365309537871e-05  4.4495927827156915e-05  9.9719206666823685e-06  6.1134329626708620e-05  2.0814310111730069e-05  2.6236645628679646e-05  1.6209877604744095e-05  5.0407937427967297e-05  3.6834265451267623e-05  5.1670642239644677e-05  3.6081805810766531e-05  2.3733411126633864e-05  6.7767894173112781e-05  6.4398200798624353e-05  1.5453014962685272e-05  2.5981584886076075e-05  5.6318186686359566e-05  6.0524429515657902e-05  4.8036944692517734e-05  1.2051525975381358e-05  1.5621600438219739e-05  2.0438687725795806e-05  2.3863411687353789e-05  5.3181931348796199e-05  1.1423922885007622e-05  9.7097249297632788e-06  1.1442531787362198e-05  2.1132319365817822e-05  2.1519845144415096e-05  1.4838691194182055e-05  5.4069184539229906e-05  4.3511721258616143e-05  2.3923065180208003e-05  5.1147605905640497e-05  2.5378248106757964e-05  1.1931592068246653e-05  9.0045650523469743e-06  1.3151064500603645e-05  4.1962647859825766e-05  3.8195900318547670e-05  3.3965734657827727e-05  2.5660005994423225e-05  5.8204817210297683e-05  3.5004366420429425e-05  2.1326586118893355e-05  7.7769434869559627e-05  5.0603708346935649e-05  4.0861998586170459e-05  2.4115960478448937e-05  5.5104471107587484e-05  5.7374211083747720e-05  3.9005358525392605e-05  5.2601414644335502e-05  4.0152962753388043e-05  2.5712266049847372e-05  2.7554986423653813e-05  4.3796767121981937e-05  6.7488731598433446e-06  2.3912294548497366e-05  4.6321526282706033e-05  3.0301430307976097e-05  3.9682320482532450e-05  4.0804173669491878e-05  6.1672198737368971e-05  2.3407467090174093e